<?xml version="1.0" encoding="UTF-8"?>

<!-- generated on 04/27/22 21:53:13 by Eclipse SUMO GUI Version 1.8.0
<configuration xmlns:xsi="http://www.w3.org/2001/XMLSchema-instance" xsi:noNamespaceSchemaLocation="http://sumo.dlr.de/xsd/sumoConfiguration.xsd">

    <input>
        <net-file value="redefine.net.xml"/>
        <route-files value="redefine.rou.xml"/>
    </input>

    <output>
        <tripinfo-output value="./output/myMethod_tripinfo.xml"/>
        <tripinfo-output.write-unfinished value="true"/>
    </output>

    <time>
        <begin value="0"/>
        <end value="3000"/>
        <step-length value="1"/>
    </time>

    <processing>
        <lateral-resolution value="1"/>
        <scale value="0"/>
    </processing>

    <report>
        <verbose value="true"/>
        <duration-log.statistics value="true"/>
        <no-step-log value="true"/>
    </report>

    <traci_server>
        <remote-port value="7000"/>
    </traci_server>

    <gui_only>
        <start value="true"/>
        <tracker-interval value="1"/>
    </gui_only>

</configuration>
-->

<tripinfos xmlns:xsi="http://www.w3.org/2001/XMLSchema-instance" xsi:noNamespaceSchemaLocation="http://sumo.dlr.de/xsd/tripinfo_file.xsd">
    <tripinfo id="ev" depart="0.00" departLane="-gneE30_0" departPos="6.60" departPosLat="0.00" departSpeed="22.50" departDelay="0.00" arrival="-1.00" arrivalLane="" arrivalPos="-1.00" arrivalPosLat="0.00" arrivalSpeed="-1.00" duration="101.00" routeLength="2131.31" waitingTime="0.00" waitingCount="0" stopTime="0.00" timeLoss="5.28" rerouteNo="0" devices="tripinfo_ev" vType="ambulance" speedFactor="1.62" vaporized="end"/>
</tripinfos>
