<?xml version="1.0" encoding="UTF-8"?>

<!-- generated on 05/09/22 14:31:00 by Eclipse SUMO GUI Version 1.8.0
<configuration xmlns:xsi="http://www.w3.org/2001/XMLSchema-instance" xsi:noNamespaceSchemaLocation="http://sumo.dlr.de/xsd/sumoConfiguration.xsd">

    <input>
        <net-file value="redefine.net.xml"/>
        <route-files value="redefine.rou.xml"/>
    </input>

    <output>
        <tripinfo-output value="./output/myMethod_tripinfo.xml"/>
        <tripinfo-output.write-unfinished value="true"/>
    </output>

    <time>
        <begin value="0"/>
        <end value="3000"/>
        <step-length value="1"/>
    </time>

    <processing>
        <lateral-resolution value="1"/>
        <scale value="1"/>
    </processing>

    <report>
        <verbose value="true"/>
        <duration-log.statistics value="true"/>
        <no-step-log value="true"/>
    </report>

    <traci_server>
        <remote-port value="7000"/>
    </traci_server>

    <gui_only>
        <start value="true"/>
        <tracker-interval value="1"/>
    </gui_only>

</configuration>
-->

<tripinfos xmlns:xsi="http://www.w3.org/2001/XMLSchema-instance" xsi:noNamespaceSchemaLocation="http://sumo.dlr.de/xsd/tripinfo_file.xsd">
    <tripinfo id="2" depart="1.00" departLane="gneE33_0" departPos="5.10" departPosLat="0.00" departSpeed="0.00" departDelay="0.00" arrival="32.00" arrivalLane="gneE33_0" arrivalPos="400.00" arrivalPosLat="0.00" arrivalSpeed="14.76" duration="31.00" routeLength="394.90" waitingTime="0.00" waitingCount="0" stopTime="0.00" timeLoss="4.45" rerouteNo="0" devices="tripinfo_2" vType="DEFAULT_VEHTYPE" speedFactor="1.08" vaporized=""/>
    <tripinfo id="79" depart="40.00" departLane="-gneE38_0" departPos="5.10" departPosLat="0.00" departSpeed="0.00" departDelay="0.50" arrival="82.00" arrivalLane="-gneE38_1" arrivalPos="546.00" arrivalPosLat="0.00" arrivalSpeed="13.53" duration="42.00" routeLength="540.90" waitingTime="0.00" waitingCount="0" stopTime="0.00" timeLoss="4.14" rerouteNo="0" devices="tripinfo_79" vType="DEFAULT_VEHTYPE" speedFactor="1.03" vaporized=""/>
    <tripinfo id="9" depart="5.00" departLane="gneE52_0" departPos="5.10" departPosLat="0.00" departSpeed="0.00" departDelay="0.50" arrival="102.00" arrivalLane="-gneE0_0" arrivalPos="682.00" arrivalPosLat="0.00" arrivalSpeed="14.71" duration="97.00" routeLength="1101.41" waitingTime="11.00" waitingCount="1" stopTime="0.00" timeLoss="23.09" rerouteNo="0" devices="tripinfo_9" vType="DEFAULT_VEHTYPE" speedFactor="1.09" vaporized=""/>
    <tripinfo id="127" depart="64.00" departLane="gneE74_0" departPos="5.10" departPosLat="0.00" departSpeed="0.00" departDelay="0.50" arrival="202.00" arrivalLane="gneE74_1" arrivalPos="2000.00" arrivalPosLat="0.00" arrivalSpeed="15.33" duration="138.00" routeLength="1994.90" waitingTime="0.00" waitingCount="0" stopTime="0.00" timeLoss="8.75" rerouteNo="0" devices="tripinfo_127" vType="DEFAULT_VEHTYPE" speedFactor="1.12" vaporized=""/>
    <tripinfo id="32" depart="16.00" departLane="gneE56_0" departPos="5.10" departPosLat="0.00" departSpeed="0.00" departDelay="0.00" arrival="206.00" arrivalLane="gneE47_1" arrivalPos="11.40" arrivalPosLat="0.00" arrivalSpeed="12.78" duration="190.00" routeLength="1142.53" waitingTime="98.00" waitingCount="1" stopTime="0.00" timeLoss="118.25" rerouteNo="0" devices="tripinfo_32" vType="DEFAULT_VEHTYPE" speedFactor="1.17" vaporized=""/>
    <tripinfo id="282" depart="145.00" departLane="gneE56_0" departPos="5.10" departPosLat="0.00" departSpeed="0.00" departDelay="4.00" arrival="206.00" arrivalLane="gneE56_0" arrivalPos="700.00" arrivalPosLat="0.10" arrivalSpeed="7.74" duration="61.00" routeLength="694.90" waitingTime="0.00" waitingCount="0" stopTime="0.00" timeLoss="11.40" rerouteNo="0" devices="tripinfo_282" vType="DEFAULT_VEHTYPE" speedFactor="1.02" vaporized=""/>
    <tripinfo id="244" depart="122.00" departLane="gneE1_0" departPos="5.10" departPosLat="0.00" departSpeed="0.00" departDelay="0.00" arrival="218.00" arrivalLane="gneE20_1" arrivalPos="400.00" arrivalPosLat="0.00" arrivalSpeed="13.57" duration="96.00" routeLength="1203.93" waitingTime="0.00" waitingCount="0" stopTime="0.00" timeLoss="9.28" rerouteNo="0" devices="tripinfo_244" vType="DEFAULT_VEHTYPE" speedFactor="1.01" vaporized=""/>
    <tripinfo id="142" depart="71.00" departLane="-gneE70_0" departPos="5.10" departPosLat="0.00" departSpeed="0.00" departDelay="0.00" arrival="225.00" arrivalLane="gneE66_0" arrivalPos="609.00" arrivalPosLat="0.00" arrivalSpeed="15.68" duration="154.00" routeLength="1615.10" waitingTime="37.00" waitingCount="1" stopTime="0.00" timeLoss="50.65" rerouteNo="0" devices="tripinfo_142" vType="DEFAULT_VEHTYPE" speedFactor="1.13" vaporized=""/>
    <tripinfo id="135" depart="68.00" departLane="gneE53_0" departPos="5.10" departPosLat="0.00" departSpeed="0.00" departDelay="0.50" arrival="230.00" arrivalLane="-gneE54_0" arrivalPos="400.00" arrivalPosLat="1.20" arrivalSpeed="14.65" duration="162.00" routeLength="1512.96" waitingTime="46.00" waitingCount="2" stopTime="0.00" timeLoss="63.51" rerouteNo="0" devices="tripinfo_135" vType="DEFAULT_VEHTYPE" speedFactor="1.12" vaporized=""/>
    <tripinfo id="167" depart="84.00" departLane="gneE58_0" departPos="5.10" departPosLat="0.00" departSpeed="0.00" departDelay="0.50" arrival="246.00" arrivalLane="gneE59_0" arrivalPos="800.00" arrivalPosLat="0.00" arrivalSpeed="13.21" duration="162.00" routeLength="1622.10" waitingTime="28.00" waitingCount="1" stopTime="0.00" timeLoss="42.52" rerouteNo="0" devices="tripinfo_167" vType="DEFAULT_VEHTYPE" speedFactor="0.98" vaporized=""/>
    <tripinfo id="409" depart="206.00" departLane="gneE38_0" departPos="5.10" departPosLat="0.00" departSpeed="0.00" departDelay="1.50" arrival="247.00" arrivalLane="gneE38_1" arrivalPos="546.00" arrivalPosLat="0.00" arrivalSpeed="14.69" duration="41.00" routeLength="540.90" waitingTime="0.00" waitingCount="0" stopTime="0.00" timeLoss="5.43" rerouteNo="0" devices="tripinfo_409" vType="DEFAULT_VEHTYPE" speedFactor="1.10" vaporized=""/>
    <tripinfo id="176" depart="88.00" departLane="gneE68_0" departPos="5.10" departPosLat="0.00" departSpeed="0.00" departDelay="0.00" arrival="253.00" arrivalLane="-gneE19_0" arrivalPos="2000.00" arrivalPosLat="0.00" arrivalSpeed="13.97" duration="165.00" routeLength="2085.83" waitingTime="2.00" waitingCount="1" stopTime="0.00" timeLoss="18.19" rerouteNo="0" devices="tripinfo_176" vType="DEFAULT_VEHTYPE" speedFactor="1.03" vaporized=""/>
    <tripinfo id="183" depart="92.00" departLane="-gneE41_0" departPos="5.10" departPosLat="0.00" departSpeed="0.00" departDelay="0.50" arrival="257.00" arrivalLane="gneE39_0" arrivalPos="900.00" arrivalPosLat="0.00" arrivalSpeed="12.17" duration="165.00" routeLength="1748.10" waitingTime="16.00" waitingCount="1" stopTime="0.00" timeLoss="31.13" rerouteNo="0" devices="tripinfo_183" vType="DEFAULT_VEHTYPE" speedFactor="0.94" vaporized=""/>
    <tripinfo id="24" depart="12.00" departLane="gneE19_0" departPos="5.10" departPosLat="0.00" departSpeed="0.00" departDelay="0.00" arrival="262.00" arrivalLane="-gneE62_0" arrivalPos="29.20" arrivalPosLat="0.00" arrivalSpeed="11.78" duration="250.00" routeLength="2736.70" waitingTime="0.00" waitingCount="0" stopTime="0.00" timeLoss="20.22" rerouteNo="0" devices="tripinfo_24" vType="DEFAULT_VEHTYPE" speedFactor="0.87" vaporized=""/>
    <tripinfo id="28" depart="14.00" departLane="-gneE3_0" departPos="5.10" departPosLat="0.00" departSpeed="0.00" departDelay="0.00" arrival="262.00" arrivalLane="gneE41_0" arrivalPos="826.00" arrivalPosLat="0.00" arrivalSpeed="12.03" duration="248.00" routeLength="2966.16" waitingTime="0.00" waitingCount="0" stopTime="0.00" timeLoss="17.54" rerouteNo="0" devices="tripinfo_28" vType="DEFAULT_VEHTYPE" speedFactor="0.93" vaporized=""/>
    <tripinfo id="122" depart="61.00" departLane="-gneE33_0" departPos="5.10" departPosLat="0.00" departSpeed="0.00" departDelay="0.00" arrival="263.00" arrivalLane="gneE4_0" arrivalPos="800.00" arrivalPosLat="0.00" arrivalSpeed="13.41" duration="202.00" routeLength="2049.24" waitingTime="38.00" waitingCount="1" stopTime="0.00" timeLoss="56.47" rerouteNo="0" devices="tripinfo_122" vType="DEFAULT_VEHTYPE" speedFactor="1.02" vaporized=""/>
    <tripinfo id="124" depart="62.00" departLane="gneE23_0" departPos="5.10" departPosLat="0.00" departSpeed="0.00" departDelay="0.00" arrival="270.00" arrivalLane="-gneE54_0" arrivalPos="400.00" arrivalPosLat="0.00" arrivalSpeed="15.24" duration="208.00" routeLength="2958.33" waitingTime="0.00" waitingCount="0" stopTime="0.00" timeLoss="22.25" rerouteNo="0" devices="tripinfo_124" vType="DEFAULT_VEHTYPE" speedFactor="1.15" vaporized=""/>
    <tripinfo id="106" depart="53.00" departLane="-gneE68_0" departPos="5.10" departPosLat="0.00" departSpeed="0.00" departDelay="0.00" arrival="275.00" arrivalLane="-gneE69_0" arrivalPos="1236.00" arrivalPosLat="0.00" arrivalSpeed="13.36" duration="222.00" routeLength="2328.52" waitingTime="39.00" waitingCount="1" stopTime="0.00" timeLoss="57.94" rerouteNo="0" devices="tripinfo_106" vType="DEFAULT_VEHTYPE" speedFactor="1.03" vaporized=""/>
    <tripinfo id="325" depart="163.00" departLane="-gneE30_0" departPos="5.10" departPosLat="0.00" departSpeed="0.00" departDelay="0.50" arrival="286.00" arrivalLane="-gneE12_1" arrivalPos="400.00" arrivalPosLat="0.00" arrivalSpeed="12.43" duration="123.00" routeLength="1403.93" waitingTime="0.00" waitingCount="0" stopTime="0.00" timeLoss="13.03" rerouteNo="0" devices="tripinfo_325" vType="DEFAULT_VEHTYPE" speedFactor="0.93" vaporized=""/>
    <tripinfo id="44" depart="22.00" departLane="-gneE16_0" departPos="5.10" departPosLat="0.00" departSpeed="0.00" departDelay="0.00" arrival="289.00" arrivalLane="-gneE12_1" arrivalPos="400.00" arrivalPosLat="1.20" arrivalSpeed="14.02" duration="267.00" routeLength="3629.64" waitingTime="1.00" waitingCount="1" stopTime="0.00" timeLoss="25.23" rerouteNo="0" devices="tripinfo_44" vType="DEFAULT_VEHTYPE" speedFactor="1.09" vaporized=""/>
    <tripinfo id="50" depart="25.00" departLane="-gneE1_0" departPos="5.10" departPosLat="0.00" departSpeed="0.00" departDelay="0.00" arrival="289.00" arrivalLane="gneE4_0" arrivalPos="800.00" arrivalPosLat="0.00" arrivalSpeed="15.94" duration="264.00" routeLength="3158.50" waitingTime="44.00" waitingCount="2" stopTime="0.00" timeLoss="68.77" rerouteNo="0" devices="tripinfo_50" vType="DEFAULT_VEHTYPE" speedFactor="1.17" vaporized=""/>
    <tripinfo id="10" depart="8.00" departLane="gneE52_0" departPos="5.10" departPosLat="0.00" departSpeed="0.00" departDelay="3.00" arrival="295.00" arrivalLane="gneE38_0" arrivalPos="546.00" arrivalPosLat="0.00" arrivalSpeed="13.71" duration="287.00" routeLength="2499.12" waitingTime="86.00" waitingCount="2" stopTime="0.00" timeLoss="110.09" rerouteNo="0" devices="tripinfo_10" vType="DEFAULT_VEHTYPE" speedFactor="1.03" vaporized=""/>
    <tripinfo id="72" depart="36.00" departLane="-gneE65_0" departPos="5.10" departPosLat="0.00" departSpeed="0.00" departDelay="0.00" arrival="303.00" arrivalLane="-gneE38_0" arrivalPos="546.00" arrivalPosLat="0.00" arrivalSpeed="5.22" duration="267.00" routeLength="3474.44" waitingTime="8.00" waitingCount="1" stopTime="0.00" timeLoss="29.07" rerouteNo="0" devices="tripinfo_72" vType="DEFAULT_VEHTYPE" speedFactor="1.06" vaporized=""/>
    <tripinfo id="239" depart="120.00" departLane="gneE57_0" departPos="5.10" departPosLat="0.00" departSpeed="0.00" departDelay="0.50" arrival="304.00" arrivalLane="gneE46_0" arrivalPos="11.40" arrivalPosLat="0.00" arrivalSpeed="9.03" duration="184.00" routeLength="1951.50" waitingTime="11.00" waitingCount="2" stopTime="0.00" timeLoss="33.79" rerouteNo="0" devices="tripinfo_239" vType="DEFAULT_VEHTYPE" speedFactor="0.95" vaporized=""/>
    <tripinfo id="52" depart="26.00" departLane="-gneE42_0" departPos="5.10" departPosLat="0.00" departSpeed="0.00" departDelay="0.00" arrival="305.00" arrivalLane="gneE29_1" arrivalPos="11.40" arrivalPosLat="0.00" arrivalSpeed="11.74" duration="279.00" routeLength="1447.69" waitingTime="163.00" waitingCount="2" stopTime="0.00" timeLoss="183.23" rerouteNo="0" devices="tripinfo_52" vType="DEFAULT_VEHTYPE" speedFactor="1.10" vaporized=""/>
    <tripinfo id="233" depart="117.00" departLane="-gneE38_0" departPos="5.10" departPosLat="0.00" departSpeed="0.00" departDelay="0.50" arrival="305.00" arrivalLane="gneE35_1" arrivalPos="11.40" arrivalPosLat="0.00" arrivalSpeed="11.18" duration="188.00" routeLength="579.50" waitingTime="133.00" waitingCount="1" stopTime="0.00" timeLoss="142.10" rerouteNo="0" devices="tripinfo_233" vType="DEFAULT_VEHTYPE" speedFactor="0.91" vaporized=""/>
    <tripinfo id="210" depart="105.00" departLane="-gneE64_0" departPos="5.10" departPosLat="0.00" departSpeed="0.00" departDelay="0.00" arrival="306.00" arrivalLane="gneE28_1" arrivalPos="11.40" arrivalPosLat="0.00" arrivalSpeed="12.77" duration="201.00" routeLength="1033.50" waitingTime="117.00" waitingCount="1" stopTime="0.00" timeLoss="128.49" rerouteNo="0" devices="tripinfo_210" vType="DEFAULT_VEHTYPE" speedFactor="1.04" vaporized=""/>
    <tripinfo id="240" depart="120.00" departLane="-gneE59_0" departPos="5.10" departPosLat="0.00" departSpeed="0.00" departDelay="0.00" arrival="309.00" arrivalLane="-gneE0_0" arrivalPos="682.00" arrivalPosLat="0.00" arrivalSpeed="13.68" duration="189.00" routeLength="1925.92" waitingTime="29.00" waitingCount="1" stopTime="0.00" timeLoss="51.10" rerouteNo="0" devices="tripinfo_240" vType="DEFAULT_VEHTYPE" speedFactor="1.01" vaporized=""/>
    <tripinfo id="134" depart="67.00" departLane="gneE20_0" departPos="5.10" departPosLat="0.00" departSpeed="0.00" departDelay="0.00" arrival="312.00" arrivalLane="-gneE0_0" arrivalPos="682.00" arrivalPosLat="0.00" arrivalSpeed="13.60" duration="245.00" routeLength="2319.47" waitingTime="53.00" waitingCount="2" stopTime="0.00" timeLoss="78.30" rerouteNo="0" devices="tripinfo_134" vType="DEFAULT_VEHTYPE" speedFactor="1.01" vaporized=""/>
    <tripinfo id="42" depart="21.00" departLane="-gneE61_0" departPos="5.10" departPosLat="0.00" departSpeed="0.00" departDelay="0.00" arrival="317.00" arrivalLane="-gneE38_0" arrivalPos="546.00" arrivalPosLat="0.00" arrivalSpeed="13.85" duration="296.00" routeLength="3438.98" waitingTime="27.00" waitingCount="3" stopTime="0.00" timeLoss="55.27" rerouteNo="0" devices="tripinfo_42" vType="DEFAULT_VEHTYPE" speedFactor="1.04" vaporized=""/>
    <tripinfo id="14" depart="7.00" departLane="gneE56_0" departPos="5.10" departPosLat="0.00" departSpeed="0.00" departDelay="0.00" arrival="321.00" arrivalLane="gneE20_1" arrivalPos="400.00" arrivalPosLat="-1.00" arrivalSpeed="9.37" duration="314.00" routeLength="2355.58" waitingTime="100.00" waitingCount="2" stopTime="0.00" timeLoss="128.80" rerouteNo="0" devices="tripinfo_14" vType="DEFAULT_VEHTYPE" speedFactor="0.93" vaporized=""/>
    <tripinfo id="109" depart="55.00" departLane="-gneE28_0" departPos="5.10" departPosLat="0.00" departSpeed="0.00" departDelay="0.50" arrival="328.00" arrivalLane="-gneE54_1" arrivalPos="400.00" arrivalPosLat="0.00" arrivalSpeed="12.04" duration="273.00" routeLength="2578.70" waitingTime="39.00" waitingCount="1" stopTime="0.00" timeLoss="70.99" rerouteNo="0" devices="tripinfo_109" vType="DEFAULT_VEHTYPE" speedFactor="0.93" vaporized=""/>
    <tripinfo id="213" depart="107.00" departLane="gneE20_0" departPos="5.10" departPosLat="0.00" departSpeed="0.00" departDelay="0.50" arrival="328.00" arrivalLane="-gneE0_0" arrivalPos="682.00" arrivalPosLat="0.00" arrivalSpeed="11.39" duration="221.00" routeLength="2319.47" waitingTime="0.00" waitingCount="0" stopTime="0.00" timeLoss="18.03" rerouteNo="0" devices="tripinfo_213" vType="DEFAULT_VEHTYPE" speedFactor="0.83" vaporized=""/>
    <tripinfo id="538" depart="269.00" departLane="gneE2_0" departPos="5.10" departPosLat="0.00" departSpeed="0.00" departDelay="0.00" arrival="331.00" arrivalLane="gneE47_2" arrivalPos="11.40" arrivalPosLat="0.00" arrivalSpeed="13.45" duration="62.00" routeLength="830.81" waitingTime="0.00" waitingCount="0" stopTime="0.00" timeLoss="6.52" rerouteNo="0" devices="tripinfo_538" vType="DEFAULT_VEHTYPE" speedFactor="1.10" vaporized=""/>
    <tripinfo id="319" depart="160.00" departLane="gneE0_0" departPos="5.10" departPosLat="0.00" departSpeed="0.00" departDelay="0.50" arrival="332.00" arrivalLane="-gneE52_1" arrivalPos="400.00" arrivalPosLat="0.00" arrivalSpeed="14.94" duration="172.00" routeLength="1085.93" waitingTime="87.00" waitingCount="1" stopTime="0.00" timeLoss="103.73" rerouteNo="0" devices="tripinfo_319" vType="DEFAULT_VEHTYPE" speedFactor="1.16" vaporized=""/>
    <tripinfo id="277" depart="142.00" departLane="gneE56_0" departPos="5.10" departPosLat="0.00" departSpeed="0.00" departDelay="3.50" arrival="334.00" arrivalLane="gneE20_0" arrivalPos="400.00" arrivalPosLat="0.00" arrivalSpeed="13.33" duration="192.00" routeLength="2355.58" waitingTime="0.00" waitingCount="0" stopTime="0.00" timeLoss="18.62" rerouteNo="0" devices="tripinfo_277" vType="DEFAULT_VEHTYPE" speedFactor="0.99" vaporized=""/>
    <tripinfo id="208" depart="104.00" departLane="-gneE4_0" departPos="5.10" departPosLat="0.00" departSpeed="0.00" departDelay="0.00" arrival="336.00" arrivalLane="gneE0_1" arrivalPos="682.00" arrivalPosLat="-0.70" arrivalSpeed="12.86" duration="232.00" routeLength="2331.30" waitingTime="34.00" waitingCount="2" stopTime="0.00" timeLoss="60.85" rerouteNo="0" devices="tripinfo_208" vType="DEFAULT_VEHTYPE" speedFactor="0.98" vaporized=""/>
    <tripinfo id="15" depart="11.00" departLane="gneE52_0" departPos="5.10" departPosLat="0.00" departSpeed="0.00" departDelay="3.50" arrival="346.00" arrivalLane="gneE41_0" arrivalPos="826.00" arrivalPosLat="0.00" arrivalSpeed="12.16" duration="335.00" routeLength="3290.78" waitingTime="32.00" waitingCount="2" stopTime="0.00" timeLoss="62.63" rerouteNo="0" devices="tripinfo_15" vType="DEFAULT_VEHTYPE" speedFactor="0.88" vaporized=""/>
    <tripinfo id="57" depart="29.00" departLane="gneE65_0" departPos="5.10" departPosLat="0.00" departSpeed="0.00" departDelay="0.50" arrival="355.00" arrivalLane="gneE61_2" arrivalPos="11.40" arrivalPosLat="-1.00" arrivalSpeed="11.22" duration="326.00" routeLength="3155.78" waitingTime="65.00" waitingCount="2" stopTime="0.00" timeLoss="100.98" rerouteNo="0" devices="tripinfo_57" vType="DEFAULT_VEHTYPE" speedFactor="1.02" vaporized=""/>
    <tripinfo id="312" depart="157.00" departLane="gneE0_0" departPos="5.10" departPosLat="0.00" departSpeed="0.00" departDelay="1.00" arrival="355.00" arrivalLane="gneE46_2" arrivalPos="11.40" arrivalPosLat="0.00" arrivalSpeed="12.92" duration="198.00" routeLength="712.81" waitingTime="140.00" waitingCount="1" stopTime="0.00" timeLoss="149.24" rerouteNo="0" devices="tripinfo_312" vType="DEFAULT_VEHTYPE" speedFactor="1.07" vaporized=""/>
    <tripinfo id="411" depart="206.00" departLane="gneE23_0" departPos="5.10" departPosLat="0.00" departSpeed="0.00" departDelay="0.50" arrival="355.00" arrivalLane="gneE55_0" arrivalPos="1000.00" arrivalPosLat="0.00" arrivalSpeed="12.24" duration="149.00" routeLength="1822.10" waitingTime="0.00" waitingCount="0" stopTime="0.00" timeLoss="12.65" rerouteNo="0" devices="tripinfo_411" vType="DEFAULT_VEHTYPE" speedFactor="0.97" vaporized=""/>
    <tripinfo id="242" depart="123.00" departLane="gneE57_0" departPos="5.10" departPosLat="0.00" departSpeed="0.00" departDelay="2.00" arrival="356.00" arrivalLane="gneE7_0" arrivalPos="500.00" arrivalPosLat="0.00" arrivalSpeed="9.12" duration="233.00" routeLength="2440.16" waitingTime="19.00" waitingCount="2" stopTime="0.00" timeLoss="54.35" rerouteNo="0" devices="tripinfo_242" vType="DEFAULT_VEHTYPE" speedFactor="0.99" vaporized=""/>
    <tripinfo id="322" depart="161.00" departLane="gneE58_0" departPos="5.10" departPosLat="0.00" departSpeed="0.00" departDelay="0.00" arrival="357.00" arrivalLane="gneE1_0" arrivalPos="800.00" arrivalPosLat="0.00" arrivalSpeed="10.53" duration="196.00" routeLength="2012.96" waitingTime="0.00" waitingCount="0" stopTime="0.00" timeLoss="18.17" rerouteNo="0" devices="tripinfo_322" vType="DEFAULT_VEHTYPE" speedFactor="0.82" vaporized=""/>
    <tripinfo id="165" depart="84.00" departLane="gneE53_0" departPos="5.10" departPosLat="0.00" departSpeed="0.00" departDelay="1.50" arrival="369.00" arrivalLane="-gneE43_0" arrivalPos="2000.00" arrivalPosLat="0.00" arrivalSpeed="13.36" duration="285.00" routeLength="3431.07" waitingTime="15.00" waitingCount="1" stopTime="0.00" timeLoss="37.33" rerouteNo="0" devices="tripinfo_165" vType="DEFAULT_VEHTYPE" speedFactor="1.00" vaporized=""/>
    <tripinfo id="156" depart="78.00" departLane="-gneE4_0" departPos="5.10" departPosLat="0.00" departSpeed="0.00" departDelay="0.00" arrival="377.00" arrivalLane="-gneE18_1" arrivalPos="842.00" arrivalPosLat="0.00" arrivalSpeed="13.89" duration="299.00" routeLength="3035.99" waitingTime="69.00" waitingCount="2" stopTime="0.00" timeLoss="94.36" rerouteNo="0" devices="tripinfo_156" vType="DEFAULT_VEHTYPE" speedFactor="1.08" vaporized=""/>
    <tripinfo id="178" depart="90.00" departLane="gneE7_0" departPos="5.10" departPosLat="0.00" departSpeed="0.00" departDelay="1.00" arrival="378.00" arrivalLane="-gneE43_0" arrivalPos="2000.00" arrivalPosLat="0.00" arrivalSpeed="14.35" duration="288.00" routeLength="3940.10" waitingTime="0.00" waitingCount="0" stopTime="0.00" timeLoss="19.85" rerouteNo="0" devices="tripinfo_178" vType="DEFAULT_VEHTYPE" speedFactor="1.06" vaporized=""/>
    <tripinfo id="23" depart="12.00" departLane="-gneE18_0" departPos="5.10" departPosLat="0.00" departSpeed="0.00" departDelay="0.50" arrival="391.00" arrivalLane="-gneE52_0" arrivalPos="400.00" arrivalPosLat="0.00" arrivalSpeed="10.93" duration="379.00" routeLength="3591.36" waitingTime="28.00" waitingCount="1" stopTime="0.00" timeLoss="63.77" rerouteNo="0" devices="tripinfo_23" vType="DEFAULT_VEHTYPE" speedFactor="0.83" vaporized=""/>
    <tripinfo id="8" depart="6.00" departLane="-gneE35_0" departPos="5.10" departPosLat="0.00" departSpeed="0.00" departDelay="2.00" arrival="395.00" arrivalLane="gneE19_0" arrivalPos="2000.00" arrivalPosLat="0.00" arrivalSpeed="11.36" duration="389.00" routeLength="3288.04" waitingTime="90.00" waitingCount="1" stopTime="0.00" timeLoss="111.44" rerouteNo="0" devices="tripinfo_8" vType="DEFAULT_VEHTYPE" speedFactor="0.86" vaporized=""/>
    <tripinfo id="133" depart="67.00" departLane="gneE16_0" departPos="5.10" departPosLat="0.00" departSpeed="0.00" departDelay="0.50" arrival="405.00" arrivalLane="gneE72_2" arrivalPos="11.40" arrivalPosLat="-1.00" arrivalSpeed="13.55" duration="338.00" routeLength="5207.25" waitingTime="0.00" waitingCount="0" stopTime="0.00" timeLoss="30.00" rerouteNo="0" devices="tripinfo_133" vType="DEFAULT_VEHTYPE" speedFactor="1.23" vaporized=""/>
    <tripinfo id="174" depart="87.00" departLane="gneE19_0" departPos="5.10" departPosLat="0.00" departSpeed="0.00" departDelay="0.00" arrival="405.00" arrivalLane="-gneE66_2" arrivalPos="609.00" arrivalPosLat="0.00" arrivalSpeed="11.71" duration="318.00" routeLength="2628.41" waitingTime="92.00" waitingCount="1" stopTime="0.00" timeLoss="111.17" rerouteNo="0" devices="tripinfo_174" vType="DEFAULT_VEHTYPE" speedFactor="0.92" vaporized=""/>
    <tripinfo id="202" depart="101.00" departLane="gneE43_0" departPos="5.10" departPosLat="0.00" departSpeed="0.00" departDelay="0.00" arrival="406.00" arrivalLane="-gneE27_1" arrivalPos="11.40" arrivalPosLat="-1.00" arrivalSpeed="13.04" duration="305.00" routeLength="3569.67" waitingTime="41.00" waitingCount="2" stopTime="0.00" timeLoss="71.42" rerouteNo="0" devices="tripinfo_202" vType="DEFAULT_VEHTYPE" speedFactor="1.11" vaporized=""/>
    <tripinfo id="153" depart="77.00" departLane="-gneE52_0" departPos="5.10" departPosLat="0.00" departSpeed="0.00" departDelay="0.50" arrival="408.00" arrivalLane="gneE65_0" arrivalPos="2000.00" arrivalPosLat="0.10" arrivalSpeed="5.67" duration="331.00" routeLength="3228.44" waitingTime="84.00" waitingCount="3" stopTime="0.00" timeLoss="111.57" rerouteNo="0" devices="tripinfo_153" vType="DEFAULT_VEHTYPE" speedFactor="1.06" vaporized=""/>
    <tripinfo id="118" depart="59.00" departLane="gneE62_0" departPos="5.10" departPosLat="0.00" departSpeed="0.00" departDelay="0.00" arrival="413.00" arrivalLane="-gneE41_0" arrivalPos="826.00" arrivalPosLat="0.00" arrivalSpeed="14.56" duration="354.00" routeLength="3606.70" waitingTime="78.00" waitingCount="1" stopTime="0.00" timeLoss="107.78" rerouteNo="0" devices="tripinfo_118" vType="DEFAULT_VEHTYPE" speedFactor="1.07" vaporized=""/>
    <tripinfo id="144" depart="72.00" departLane="-gneE65_0" departPos="5.10" departPosLat="0.00" departSpeed="0.00" departDelay="0.00" arrival="414.00" arrivalLane="-gneE52_0" arrivalPos="400.00" arrivalPosLat="0.00" arrivalSpeed="14.58" duration="342.00" routeLength="3527.32" waitingTime="93.00" waitingCount="1" stopTime="0.00" timeLoss="117.66" rerouteNo="0" devices="tripinfo_144" vType="DEFAULT_VEHTYPE" speedFactor="1.14" vaporized=""/>
    <tripinfo id="717" depart="359.00" departLane="gneE41_0" departPos="5.10" departPosLat="0.00" departSpeed="0.00" departDelay="0.50" arrival="417.00" arrivalLane="gneE41_0" arrivalPos="826.00" arrivalPosLat="0.00" arrivalSpeed="14.59" duration="58.00" routeLength="820.90" waitingTime="0.00" waitingCount="0" stopTime="0.00" timeLoss="5.86" rerouteNo="0" devices="tripinfo_717" vType="DEFAULT_VEHTYPE" speedFactor="1.14" vaporized=""/>
    <tripinfo id="123" depart="62.00" departLane="-gneE39_0" departPos="5.10" departPosLat="0.00" departSpeed="0.00" departDelay="0.50" arrival="420.00" arrivalLane="-gneE66_0" arrivalPos="609.00" arrivalPosLat="0.00" arrivalSpeed="13.68" duration="358.00" routeLength="4411.28" waitingTime="31.00" waitingCount="1" stopTime="0.00" timeLoss="57.21" rerouteNo="0" devices="tripinfo_123" vType="DEFAULT_VEHTYPE" speedFactor="1.06" vaporized=""/>
    <tripinfo id="245" depart="155.00" departLane="-gneE35_0" departPos="5.10" departPosLat="0.00" departSpeed="0.00" departDelay="32.50" arrival="420.00" arrivalLane="-gneE38_0" arrivalPos="546.00" arrivalPosLat="0.00" arrivalSpeed="12.49" duration="265.00" routeLength="2703.90" waitingTime="35.00" waitingCount="2" stopTime="0.00" timeLoss="61.21" rerouteNo="0" devices="tripinfo_245" vType="DEFAULT_VEHTYPE" speedFactor="0.97" vaporized=""/>
    <tripinfo id="173" depart="87.00" departLane="gneE7_0" departPos="5.10" departPosLat="0.00" departSpeed="0.00" departDelay="0.50" arrival="422.00" arrivalLane="-gneE52_1" arrivalPos="400.00" arrivalPosLat="-0.80" arrivalSpeed="12.83" duration="335.00" routeLength="3998.21" waitingTime="0.00" waitingCount="0" stopTime="0.00" timeLoss="30.08" rerouteNo="0" devices="tripinfo_173" vType="DEFAULT_VEHTYPE" speedFactor="0.96" vaporized=""/>
    <tripinfo id="95" depart="48.00" departLane="-gneE65_0" departPos="5.10" departPosLat="0.00" departSpeed="0.00" departDelay="0.50" arrival="425.00" arrivalLane="-gneE52_0" arrivalPos="400.00" arrivalPosLat="0.00" arrivalSpeed="13.49" duration="377.00" routeLength="3522.16" waitingTime="98.00" waitingCount="1" stopTime="0.00" timeLoss="124.22" rerouteNo="0" devices="tripinfo_95" vType="DEFAULT_VEHTYPE" speedFactor="1.01" vaporized=""/>
    <tripinfo id="18" depart="9.00" departLane="gneE54_0" departPos="5.10" departPosLat="0.00" departSpeed="0.00" departDelay="0.00" arrival="429.00" arrivalLane="gneE23_1" arrivalPos="800.00" arrivalPosLat="0.00" arrivalSpeed="16.05" duration="420.00" routeLength="3726.60" waitingTime="131.00" waitingCount="3" stopTime="0.00" timeLoss="184.98" rerouteNo="0" devices="tripinfo_18" vType="DEFAULT_VEHTYPE" speedFactor="1.16" vaporized=""/>
    <tripinfo id="363" depart="186.00" departLane="gneE23_0" departPos="5.10" departPosLat="0.00" departSpeed="0.00" departDelay="4.50" arrival="430.00" arrivalLane="-gneE43_0" arrivalPos="2000.00" arrivalPosLat="0.00" arrivalSpeed="12.99" duration="244.00" routeLength="2822.04" waitingTime="17.00" waitingCount="1" stopTime="0.00" timeLoss="38.91" rerouteNo="0" devices="tripinfo_363" vType="DEFAULT_VEHTYPE" speedFactor="0.99" vaporized=""/>
    <tripinfo id="597" depart="299.00" departLane="-gneE53_0" departPos="5.10" departPosLat="0.00" departSpeed="0.00" departDelay="0.50" arrival="431.00" arrivalLane="gneE54_0" arrivalPos="400.00" arrivalPosLat="0.00" arrivalSpeed="14.73" duration="132.00" routeLength="1491.72" waitingTime="15.00" waitingCount="3" stopTime="0.00" timeLoss="34.14" rerouteNo="0" devices="tripinfo_597" vType="DEFAULT_VEHTYPE" speedFactor="1.11" vaporized=""/>
    <tripinfo id="421" depart="211.00" departLane="gneE2_0" departPos="5.10" departPosLat="0.00" departSpeed="0.00" departDelay="0.50" arrival="432.00" arrivalLane="gneE58_0" arrivalPos="800.00" arrivalPosLat="0.00" arrivalSpeed="13.02" duration="221.00" routeLength="2740.16" waitingTime="0.00" waitingCount="0" stopTime="0.00" timeLoss="15.78" rerouteNo="0" devices="tripinfo_421" vType="DEFAULT_VEHTYPE" speedFactor="0.97" vaporized=""/>
    <tripinfo id="456" depart="228.00" departLane="-gneE46_0" departPos="5.10" departPosLat="0.00" departSpeed="0.00" departDelay="0.00" arrival="434.00" arrivalLane="gneE53_0" arrivalPos="400.00" arrivalPosLat="0.00" arrivalSpeed="14.67" duration="206.00" routeLength="2594.24" waitingTime="22.00" waitingCount="1" stopTime="0.00" timeLoss="36.38" rerouteNo="0" devices="tripinfo_456" vType="DEFAULT_VEHTYPE" speedFactor="1.11" vaporized=""/>
    <tripinfo id="390" depart="195.00" departLane="gneE55_0" departPos="5.10" departPosLat="0.00" departSpeed="0.00" departDelay="0.00" arrival="436.00" arrivalLane="gneE10_0" arrivalPos="700.00" arrivalPosLat="0.00" arrivalSpeed="14.51" duration="241.00" routeLength="2769.79" waitingTime="34.00" waitingCount="1" stopTime="0.00" timeLoss="59.58" rerouteNo="0" devices="tripinfo_390" vType="DEFAULT_VEHTYPE" speedFactor="1.11" vaporized=""/>